  Lammps topological information                           
                                                           
             3605  atoms
             2910  bonds
             3811  angles
             5016  dihedrals
   
                6  atom types
                5  bond types
                7  angle types
               10  dihedral types
   
       0.00000      21.00000  xlo xhi
       0.00000      21.00000  ylo yhi
       0.00000      84.00000  zlo zhi
   
