 LAMMPS Description
 
         3 atoms
         2 bonds
         1 angles
 
           2 atom types
           1 bond types
           1 angle types
 
           -9.55   9.55  xlo xhi
           -9.55   9.55  ylo yhi
           -9.55   9.55  zlo zhi
 
 Masses
 
           1   15.99940    
           2    1.00800    
 
 Pair Coeffs
 
           1  0.15524983       3.1880000        10.00000    
           2  3.9674952E-02   0.64999998        10.00000    
 
 Bond Coeffs
 
           1   554.2901       1.0000000    
 
 Angle Coeffs
 
           1   45.7695       109.40000    
 
 Atoms
  
    1    1    1   -0.8476   0.0       0.0    -0.06
    2    1    2    0.4238   0.0    -0.8451   0.49679
    3    1    2    0.4238   0.0     0.8451   0.49679
  
 Bonds
  
    1    1    1  2
    2    1    1  3
  
 Angles
  
    1    1   2  1  3
