# LAMMPS Description EPM2  J. Phys. Chem.19959931 ! RIGID FORCE FIELD 

         3 atoms
         2 bonds
         1 angles

           2 atom types
           1 bond types
           1 angle types

           0   4.9  xlo xhi
           0   4.9  ylo yhi
           0   4.9  zlo zhi

 Masses

           1   12.01100
           2   15.99900

 Pair Coeffs

           1  0.05589771490000         2.75700000000000         10.00000
           2  0.15998284000000         3.03300000000000         10.00000

 Bond Coeffs

           1        1283.381573  1.149000

 Angle Coeffs

           1   147.7055       180.0000

 Atoms

    1    1    1   0.65120   1.14900   0.00000   0.00000
    2    1    2   -0.3256   2.29800   0.00000   0.00000
    3    1    2   -0.3256   0.00000   0.00000   0.00000

 Bonds

    1    1    1  2
    2    1    1  3

 Angles

    1    1   3  1  2

