  Lammps topological information                           
                                                           
              801  atoms
              534  bonds
              267  angles
   
                2  atom types
                1  bond types
                1  angle types
   
       0.00000      20.00000  xlo xhi
       0.00000      20.00000  ylo yhi
       0.00000      20.00000  zlo zhi
   
 Masses

           1   15.99940
           2    1.00800

 Pair Coeffs

           1  0.15524983       3.1880000        10.00000
           2  3.9674952E-02   0.64999998        10.00000

 Bond Coeffs

           1   554.2901       1.0000000

 Angle Coeffs

           1   45.7695       109.40000
      
 Atoms
      
      1        1    1  -0.84760     8.25427     7.62263    17.54716
      2        1    2   0.42380     8.35297     8.39211    16.89726
      3        1    2   0.42380     7.47660     7.01285    17.32897
      4        2    1  -0.84760    13.57350     8.81179    19.60202
      5        2    2   0.42380    12.85491     9.50940    19.74753
      6        2    2   0.42380    14.47317     9.08034    19.97975
      7        3    1  -0.84760     3.80711    17.74409    17.53460
      8        3    2   0.42380     4.15634    17.61295    18.47537
      9        3    2   0.42380     3.08020    18.44549    17.47259
     10        4    1  -0.84760     8.84746    11.33862     6.01887
     11        4    2   0.42380     8.10083    11.03843     5.40515
     12        4    2   0.42380     9.64735    11.71021     5.52258
     13        5    1  -0.84760     4.51846    19.24958     7.85809
     14        5    2   0.42380     5.47363    19.14111     7.54169
     15        5    2   0.42380     3.87751    19.49809     7.11538
     16        6    1  -0.84760    15.66533    15.77125     5.13171
     17        6    2   0.42380    15.52503    16.60121     4.56984
     18        6    2   0.42380    16.56243    15.32982     4.97501
     19        7    1  -0.84760     4.05312     5.25766     3.76678
     20        7    2   0.42380     3.16874     5.71703     3.94301
     21        7    2   0.42380     4.71493     5.84182     3.27184
     22        8    1  -0.84760     2.50303     3.44541     5.21165
     23        8    2   0.42380     3.51474     3.46187     5.19183
     24        8    2   0.42380     2.08072     3.85684     4.38910
     25        9    1  -0.84760    17.89819     2.20140     8.79619
     26        9    2   0.42380    17.59697     2.68854     9.63056
     27        9    2   0.42380    18.41484     1.35377     8.99317
     28       10    1  -0.84760     5.33615    10.91149     3.81442
     29       10    2   0.42380     4.54476    10.74523     4.42293
     30       10    2   0.42380     6.19007    11.11742     4.31704
     31       11    1  -0.84760     2.92954     2.65509    14.13596
     32       11    2   0.42380     2.39081     3.49158    14.32107
     33       11    2   0.42380     2.50350     2.05035    13.44532
     34       12    1  -0.84760     7.62159    14.67327     9.30168
     35       12    2   0.42380     8.09350    15.56640     9.36344
     36       12    2   0.42380     7.40546    14.27243    10.20547
     37       13    1  -0.84760     1.68832    12.16799     1.66443
     38       13    2   0.42380     1.71359    12.99475     2.24756
     39       13    2   0.42380     2.17350    11.37801     2.07031
     40       14    1  -0.84760    10.13588     8.10530    11.09693
     41       14    2   0.42380     9.79359     7.72422    10.22411
     42       14    2   0.42380     9.49904     7.96525    11.87090
     43       15    1  -0.84760     1.38434     0.36800    18.35721
     44       15    2   0.42380     2.27157    -0.00172    18.04046
     45       15    2   0.42380     0.59410     0.01314    17.83394
     46       16    1  -0.84760     4.59301     8.81804     2.15898
     47       16    2   0.42380     5.39166     9.43924     2.18073
     48       16    2   0.42380     3.72144     9.29471     1.96567
     49       17    1  -0.84760     6.02938    13.32425     4.64224
     50       17    2   0.42380     5.35850    12.91272     5.27846
     51       17    2   0.42380     6.99008    13.13045     4.89464
     52       18    1  -0.84760    19.01786    14.68144     2.71972
     53       18    2   0.42380    18.59697    13.83869     2.34981
     54       18    2   0.42380    18.34116    15.39773     2.95041
     55       19    1  -0.84760     5.76632     8.50206    16.78587
     56       19    2   0.42380     6.07364     8.64823    15.83277
     57       19    2   0.42380     6.05457     9.23965    17.41600
     58       20    1  -0.84760    16.71186    12.33037     6.73409
     59       20    2   0.42380    16.36768    11.56568     7.30065
     60       20    2   0.42380    16.95534    13.15023     7.27516
     61       21    1  -0.84760    16.79067     6.29747    19.21153
     62       21    2   0.42380    16.17121     6.89853    18.68313
     63       21    2   0.42380    17.70077     6.18632    18.78307
     64       22    1  -0.84760     5.30013    20.00097    17.94298
     65       22    2   0.42380     5.56286    19.08755    17.59536
     66       22    2   0.42380     5.03677    19.99583    18.92013
     67       23    1  -0.84760    11.58157     6.65411    12.00261
     68       23    2   0.42380    10.72185     6.13425    11.88077
     69       23    2   0.42380    12.33015     6.10060    12.39944
     70       24    1  -0.84760    12.89212    12.92436     8.71497
     71       24    2   0.42380    13.25253    13.20588     9.61777
     72       24    2   0.42380    11.88432    12.98946     8.64931
     73       25    1  -0.84760     2.17742     5.59705    19.41945
     74       25    2   0.42380     1.44531     5.20765    19.99961
     75       25    2   0.42380     1.85356     6.33893    18.81204
     76       26    1  -0.84760    11.16681     5.31748    14.12895
     77       26    2   0.42380    12.12376     5.17347    14.42516
     78       26    2   0.42380    10.91054     6.29459    14.06742
     79       27    1  -0.84760    19.22996     8.86339    19.99994
     80       27    2   0.42380    18.32991     9.16628    19.65009
     81       27    2   0.42380    19.99991     9.11729    19.39420
     82       28    1  -0.84760    13.67775    15.40317    11.54974
     83       28    2   0.42380    14.10197    14.78043    12.22534
     84       28    2   0.42380    13.14799    16.15310    11.97538
     85       29    1  -0.84760    10.97071    10.57635    18.31613
     86       29    2   0.42380    11.82279    10.20762    17.91339
     87       29    2   0.42380    10.96259    10.54880    19.32775
     88       30    1  -0.84760    10.94475    10.30934     7.28662
     89       30    2   0.42380    10.62763     9.93767     6.40034
     90       30    2   0.42380    11.42061    11.19827     7.19960
     91       31    1  -0.84760     9.40626     5.19083    18.62628
     92       31    2   0.42380     9.44379     4.39599    18.00096
     93       31    2   0.42380     9.34147     4.92891    19.60168
     94       32    1  -0.84760    10.96251     6.17338     0.09030
     95       32    2   0.42380    11.77618     5.71150     0.47606
     96       32    2   0.42380    10.12316     6.02562     0.63608
     97       33    1  -0.84760    12.97915    10.66322     3.49830
     98       33    2   0.42380    13.63291     9.91355     3.68487
     99       33    2   0.42380    13.41952    11.57278     3.44358
    100       34    1  -0.84760     5.00303    15.37708    17.20921
    101       34    2   0.42380     5.59556    15.33850    16.38968
    102       34    2   0.42380     5.32844    14.78843    17.96538
    103       35    1  -0.84760    18.02019    18.46719    17.77620
    104       35    2   0.42380    17.47910    18.26767    18.60784
    105       35    2   0.42380    18.67714    17.73394    17.54172
    106       36    1  -0.84760     2.26265     3.70856     7.38824
    107       36    2   0.42380     2.52016     4.21657     8.22479
    108       36    2   0.42380     1.58568     2.97579     7.55846
    109       37    1  -0.84760     8.01169     0.98439    11.47315
    110       37    2   0.42380     8.08296     0.30566    12.22044
    111       37    2   0.42380     8.49270     1.85180    11.67425
    112       38    1  -0.84760    10.27713    11.11927     0.04975
    113       38    2   0.42380     9.82719    12.02444     0.00036
    114       38    2   0.42380     9.74479    10.43674     0.57413
    115       39    1  -0.84760     9.58815    17.45323    19.97756
    116       39    2   0.42380     8.72745    16.92133    19.99930
    117       39    2   0.42380     9.58001    18.19830    19.29271
    118       40    1  -0.84760    19.25369     6.14833     7.90885
    119       40    2   0.42380    18.44795     6.22603     8.51627
    120       40    2   0.42380    20.00228     5.59589     8.30713
    121       41    1  -0.84760    10.72314     8.12253    18.85381
    122       41    2   0.42380     9.98335     8.40394    19.48446
    123       41    2   0.42380    11.54999     7.78815    19.33207
    124       42    1  -0.84760     9.71309     3.41533    16.04128
    125       42    2   0.42380    10.23691     3.55545    15.18677
    126       42    2   0.42380     8.77174     3.78435    15.99774
    127       43    1  -0.84760    15.15105     5.76598     4.76311
    128       43    2   0.42380    15.69821     5.14921     5.34999
    129       43    2   0.42380    14.61933     6.44880     5.28775
    130       44    1  -0.84760    16.08264     4.37560     9.62534
    131       44    2   0.42380    16.17625     4.12516     8.64926
    132       44    2   0.42380    15.93400     5.36599     9.77106
    133       45    1  -0.84760     4.75172    12.04659     2.02244
    134       45    2   0.42380     3.95681    12.67280     2.00906
    135       45    2   0.42380     5.35860    12.15436     1.21976
    136       46    1  -0.84760    13.57606     3.00716    17.82266
    137       46    2   0.42380    12.86124     3.29242    17.16551
    138       46    2   0.42380    14.43069     2.70117    17.37525
    139       47    1  -0.84760     9.52470     0.91942    15.28766
    140       47    2   0.42380     8.58202     0.99142    15.64873
    141       47    2   0.42380    10.22090     0.79272    16.01117
    142       48    1  -0.84760    13.75456    19.56792    12.72740
    143       48    2   0.42380    12.98683    19.91557    13.28771
    144       48    2   0.42380    14.53166    19.22985    13.28060
    145       49    1  -0.84760    12.58785    17.74768     1.02519
    146       49    2   0.42380    12.54305    16.98316     1.68679
    147       49    2   0.42380    12.64248    18.65616     1.46778
    148       50    1  -0.84760     6.81111    18.70260    19.36524
    149       50    2   0.42380     6.08496    18.38820    19.99618
    150       50    2   0.42380     7.63000    19.05623    19.84332
    151       51    1  -0.84760     7.52090     7.84753    14.27009
    152       51    2   0.42380     7.96312     8.65797    14.68462
    153       51    2   0.42380     7.99856     7.51078    13.44386
    154       52    1  -0.84760     9.38716    16.14802    11.60271
    155       52    2   0.42380    10.39835    16.12968    11.63964
    156       52    2   0.42380     8.96921    15.22731    11.64543
    157       53    1  -0.84760     1.40151     8.92893     2.48616
    158       53    2   0.42380     1.64865     8.22351     3.16844
    159       53    2   0.42380     0.94106     9.73343     2.89234
    160       54    1  -0.84760     2.96701     6.66529    11.18772
    161       54    2   0.42380     3.27855     5.94532    10.54835
    162       54    2   0.42380     3.51612     6.71041    12.03663
    163       55    1  -0.84760    13.07345     3.86475     9.37549
    164       55    2   0.42380    14.02137     3.89792     9.02257
    165       55    2   0.42380    13.00681     3.46893    10.30452
    166       56    1  -0.84760    15.80247     3.18892     0.75844
    167       56    2   0.42380    16.77980     3.31595     0.98847
    168       56    2   0.42380    15.41894     2.32095     1.11019
    169       57    1  -0.84760     8.82286     5.57114     9.72435
    170       57    2   0.42380     9.33174     4.87762    10.25754
    171       57    2   0.42380     7.83140     5.58230     9.92707
    172       58    1  -0.84760     9.09194    19.35538    10.57829
    173       58    2   0.42380     8.11894    19.48692    10.82358
    174       58    2   0.42380     9.37916    18.38504    10.59023
    175       59    1  -0.84760     0.19231    18.27040     2.38320
    176       59    2   0.42380     0.68269    17.72255     3.07861
    177       59    2   0.42380     0.00006    19.21748     2.68368
    178       60    1  -0.84760     5.29579     3.07631     3.54224
    179       60    2   0.42380     5.35158     2.57364     2.66565
    180       60    2   0.42380     5.81404     3.94557     3.53784
    181       61    1  -0.84760     9.80645    17.78959     1.50117
    182       61    2   0.42380    10.25349    17.52094     0.63388
    183       61    2   0.42380    10.46045    18.10177     2.20760
    184       62    1  -0.84760    17.10754     1.62081    14.26306
    185       62    2   0.42380    16.63631     2.50090    14.42913
    186       62    2   0.42380    18.10594     1.72101    14.13129
    187       63    1  -0.84760     5.34567     6.68045     6.26750
    188       63    2   0.42380     4.78952     6.47424     5.44751
    189       63    2   0.42380     6.34078     6.68872     6.08340
    190       64    1  -0.84760     2.58592    12.69291    15.23136
    191       64    2   0.42380     3.57955    12.60221    15.06199
    192       64    2   0.42380     2.19749    11.91810    15.75386
    193       65    1  -0.84760    18.94976    16.34283    12.18324
    194       65    2   0.42380    18.63198    17.22043    12.57444
    195       65    2   0.42380    18.25759    15.60664    12.23935
    196       66    1  -0.84760    15.50180    16.62890    14.54385
    197       66    2   0.42380    15.01587    17.45368    14.87221
    198       66    2   0.42380    16.44252    16.82057    14.22366
    199       67    1  -0.84760    19.54212    15.50513     5.89056
    200       67    2   0.42380    19.99802    16.40843     5.91125
    201       67    2   0.42380    19.99744    14.81453     6.47362
    202       68    1  -0.84760    19.72952    11.74881     3.02220
    203       68    2   0.42380    19.91550    11.44657     3.96997
    204       68    2   0.42380    18.80805    11.48941     2.69384
    205       69    1  -0.84760    14.28819     8.06273     8.26671
    206       69    2   0.42380    13.79778     7.33220     8.76675
    207       69    2   0.42380    15.09087     8.42064     8.76852
    208       70    1  -0.84760     3.36046    15.22858    13.99277
    209       70    2   0.42380     3.95734    14.42211    13.86023
    210       70    2   0.42380     3.29907    15.52564    14.95827
    211       71    1  -0.84760     3.40009    13.82557     4.81559
    212       71    2   0.42380     3.11973    13.11764     5.48226
    213       71    2   0.42380     2.97085    13.71027     3.90638
    214       72    1  -0.84760    18.89943    14.92196    14.91162
    215       72    2   0.42380    18.13417    14.27627    14.76439
    216       72    2   0.42380    18.82095    15.76674    14.35990
    217       73    1  -0.84760    18.49847     8.81034     0.08671
    218       73    2   0.42380    17.90714     8.08710     0.47590
    219       73    2   0.42380    19.14576     9.20175     0.75903
    220       74    1  -0.84760    18.62249     0.69442     6.74493
    221       74    2   0.42380    17.69493     0.63781     6.34415
    222       74    2   0.42380    19.26618     1.24040     6.18655
    223       75    1  -0.84760     8.92975     6.14102     3.08035
    224       75    2   0.42380     8.66665     6.98612     3.57106
    225       75    2   0.42380     9.68020     5.63410     3.53208
    226       76    1  -0.84760     5.10237     1.45955    15.41858
    227       76    2   0.42380     4.77411     1.68804    16.34822
    228       76    2   0.42380     4.57319     0.71702    14.97946
    229       77    1  -0.84760    16.77299    10.37019     1.00768
    230       77    2   0.42380    16.25508    10.93086     0.34313
    231       77    2   0.42380    16.24351     9.58614     1.36703
    232       78    1  -0.84760     6.69079    19.54132    12.87455
    233       78    2   0.42380     5.83220    19.57478    13.40925
    234       78    2   0.42380     7.51319    19.75014    13.42615
    235       79    1  -0.84760    16.21401     9.72751     3.73186
    236       79    2   0.42380    15.60049     8.92690     3.64922
    237       79    2   0.42380    15.71671    10.60232     3.83960
    238       80    1  -0.84760     7.46321    19.81380    16.54092
    239       80    2   0.42380     6.72049    19.99931    15.87898
    240       80    2   0.42380     8.38585    19.99706    16.16763
    241       81    1  -0.84760     7.54771    11.73305    10.62557
    242       81    2   0.42380     7.06860    12.06772     9.79934
    243       81    2   0.42380     6.91975    11.49716    11.38335
    244       82    1  -0.84760    14.17442    10.42016     8.74579
    245       82    2   0.42380    13.53356    10.34065     7.96657
    246       82    2   0.42380    13.70973    10.58185     9.63017
    247       83    1  -0.84760    11.51787    15.20373    16.31752
    248       83    2   0.42380    11.44243    14.37403    16.89207
    249       83    2   0.42380    11.53761    16.06114    16.85481
    250       84    1  -0.84760     6.79154     3.72930     6.83026
    251       84    2   0.42380     7.02144     3.38595     7.75410
    252       84    2   0.42380     5.79540     3.77417     6.65733
    253       85    1  -0.84760     0.63933    16.21259    10.35727
    254       85    2   0.42380     0.59726    16.28910    11.36552
    255       85    2   0.42380     1.57615    16.05742    10.00726
    256       86    1  -0.84760    12.96161    19.39469    19.42866
    257       86    2   0.42380    12.43605    19.52858    18.57422
    258       86    2   0.42380    12.69499    18.55991    19.93488
    259       87    1  -0.84760    14.77265    13.17626     0.27647
    260       87    2   0.42380    14.46653    12.30269     0.68559
    261       87    2   0.42380    15.74657    13.16884     0.00144
    262       88    1  -0.84760    16.23865    13.49078    13.24411
    263       88    2   0.42380    16.13320    14.32360    13.80935
    264       88    2   0.42380    15.97293    13.62801    12.27728
    265       89    1  -0.84760    14.25034     1.40083     6.89441
    266       89    2   0.42380    13.39776     1.30762     7.43165
    267       89    2   0.42380    14.57336     2.35709     6.82062
    268       90    1  -0.84760    14.26833     5.06726    17.48088
    269       90    2   0.42380    14.82506     5.19885    18.31571
    270       90    2   0.42380    14.35612     5.82727    16.81840
    271       91    1  -0.84760    11.00922     3.51728    12.79093
    272       91    2   0.42380    11.47779     4.07674    12.08974
    273       91    2   0.42380    10.15727     3.08684    12.45460
    274       92    1  -0.84760    16.24028    15.33132    18.31409
    275       92    2   0.42380    16.61548    16.27068    18.28201
    276       92    2   0.42380    16.67743    14.75048    19.01818
    277       93    1  -0.84760    15.11087     2.01516     9.35568
    278       93    2   0.42380    14.61801     1.13700     9.25506
    279       93    2   0.42380    15.56526     2.11745    10.25416
    280       94    1  -0.84760    11.25025     6.09041     9.51204
    281       94    2   0.42380    11.48726     5.24683    10.01840
    282       94    2   0.42380    11.78828     6.89618     9.80439
    283       95    1  -0.84760     7.13597    12.35201     7.11751
    284       95    2   0.42380     6.42902    11.90621     7.68820
    285       95    2   0.42380     7.85846    12.80771     7.66025
    286       96    1  -0.84760    12.83714     4.26009     5.98514
    287       96    2   0.42380    13.81879     4.33426     6.21982
    288       96    2   0.42380    12.65733     4.33323     4.99190
    289       97    1  -0.84760     9.11840    10.05468    11.19562
    290       97    2   0.42380     9.84987    10.13754    11.89009
    291       97    2   0.42380     8.23572     9.74326    11.58048
    292       98    1  -0.84760    17.63268     7.29227     5.28115
    293       98    2   0.42380    16.72579     7.30062     4.83204
    294       98    2   0.42380    17.84129     6.41657     5.74357
    295       99    1  -0.84760    19.97217     7.66408     5.42407
    296       99    2   0.42380    19.53680     8.42117     5.93543
    297       99    2   0.42380    19.99936     6.79551     5.94278
    298      100    1  -0.84760    18.71966     4.72005     3.19387
    299      100    2   0.42380    18.39125     5.40286     3.86479
    300      100    2   0.42380    19.69526     4.83598     2.95101
    301      101    1  -0.84760    10.03443     4.49746     8.03615
    302      101    2   0.42380     9.83034     3.62983     8.51549
    303      101    2   0.42380    10.98444     4.54925     7.69118
    304      102    1  -0.84760     9.06666     4.12919     5.96593
    305      102    2   0.42380     9.04893     3.24885     6.46483
    306      102    2   0.42380     9.55454     4.07687     5.08081
    307      103    1  -0.84760     5.64748     0.41309     2.95768
    308      103    2   0.42380     6.50701     0.68946     2.50046
    309      103    2   0.42380     4.97365     0.00028     2.32542
    310      104    1  -0.84760     2.44516    18.86419     5.36872
    311      104    2   0.42380     3.08249    19.38247     4.77761
    312      104    2   0.42380     1.60464    18.56974     4.88806
    313      105    1  -0.84760     1.35647     3.50567    18.16748
    314      105    2   0.42380     1.86684     4.24930    17.70842
    315      105    2   0.42380     0.48985     3.81638    18.58777
    316      106    1  -0.84760    14.10597    14.68493    15.75086
    317      106    2   0.42380    14.13967    14.36652    14.79081
    318      106    2   0.42380    14.95120    14.48157    16.26897
    319      107    1  -0.84760    15.02120    11.44558    14.60680
    320      107    2   0.42380    15.12231    12.26372    15.19387
    321      107    2   0.42380    15.09095    11.65209    13.61852
    322      108    1  -0.84760     2.09309     4.46422    11.66282
    323      108    2   0.42380     2.91449     3.88078    11.75831
    324      108    2   0.42380     1.40312     4.30389    12.38563
    325      109    1  -0.84760     3.51713     3.72820     2.27347
    326      109    2   0.42380     4.06686     3.87195     1.43601
    327      109    2   0.42380     2.69174     4.31237     2.31456
    328      110    1  -0.84760    12.24357    14.41967     6.70581
    329      110    2   0.42380    12.00536    15.27338     7.19432
    330      110    2   0.42380    12.01282    14.44550     5.72077
    331      111    1  -0.84760     2.59321     1.66621    16.63973
    332      111    2   0.42380     2.41119     2.61558    16.34012
    333      111    2   0.42380     2.12245     0.97165    16.07389
    334      112    1  -0.84760    19.70209     2.07890    11.17588
    335      112    2   0.42380    20.01500     1.38871    10.50511
    336      112    2   0.42380    19.46242     2.96665    10.75319
    337      113    1  -0.84760     4.06095     8.11310    14.31528
    338      113    2   0.42380     3.51571     8.93430    14.54451
    339      113    2   0.42380     4.72257     8.26947    13.56561
    340      114    1  -0.84760     2.48478    14.72410     6.94027
    341      114    2   0.42380     1.72125    14.06307     7.00570
    342      114    2   0.42380     2.85229    15.00028     7.84186
    343      115    1  -0.84760    15.21586     3.87787     3.62065
    344      115    2   0.42380    14.60568     3.49828     4.33325
    345      115    2   0.42380    14.85752     3.75656     2.68199
    346      116    1  -0.84760    10.57375     9.35091    14.86209
    347      116    2   0.42380    10.15943     8.49263    14.52166
    348      116    2   0.42380    10.54403     9.43637    15.87007
    349      117    1  -0.84760     7.45982    14.73272    14.97751
    350      117    2   0.42380     7.68395    15.00752    14.02964
    351      117    2   0.42380     6.92475    13.87523    15.02880
    352      118    1  -0.84760     8.60173     4.91969    12.40527
    353      118    2   0.42380     8.21438     4.08645    11.98113
    354      118    2   0.42380     8.14388     5.77066    12.10457
    355      119    1  -0.84760     5.40945    13.04738    11.00121
    356      119    2   0.42380     4.96690    13.56860    10.25510
    357      119    2   0.42380     4.85044    12.27151    11.33249
    358      120    1  -0.84760    17.17244     3.63453     6.17433
    359      120    2   0.42380    17.95965     3.62894     5.53834
    360      120    2   0.42380    17.05571     2.76167     6.67302
    361      121    1  -0.84760     7.19067     9.58416     0.92302
    362      121    2   0.42380     6.91391     9.89325    -0.00006
    363      121    2   0.42380     7.38802     8.59265     0.96970
    364      122    1  -0.84760    16.40881     9.82815    18.20017
    365      122    2   0.42380    16.54216     8.92691    17.75951
    366      122    2   0.42380    15.43549    10.09373    18.27969
    367      123    1  -0.84760    12.80345     8.24978    13.16044
    368      123    2   0.42380    12.50491     9.20957    13.27833
    369      123    2   0.42380    12.77804     7.71526    14.01943
    370      124    1  -0.84760    17.97836     7.46224     3.03041
    371      124    2   0.42380    18.63783     7.04123     2.38850
    372      124    2   0.42380    17.46472     8.23467     2.62576
    373      125    1  -0.84760    15.74485    20.04577     6.47938
    374      125    2   0.42380    14.73896    19.95539     6.41447
    375      125    2   0.42380    16.21243    19.95513     5.58643
    376      126    1  -0.84760     3.32276    13.31827    17.29239
    377      126    2   0.42380     3.60943    12.48135    17.78392
    378      126    2   0.42380     3.18332    14.11256    17.90385
    379      127    1  -0.84760     9.55356    14.00676     5.91354
    380      127    2   0.42380     8.56835    14.16581     6.08165
    381      127    2   0.42380    10.06224    13.73682     6.74576
    382      128    1  -0.84760    12.02859    11.57298    12.71122
    383      128    2   0.42380    12.44008    12.49453    12.78619
    384      128    2   0.42380    11.10978    11.51052    13.13086
    385      129    1  -0.84760     7.26588     2.06928     5.42756
    386      129    2   0.42380     7.43444     1.72461     4.49108
    387      129    2   0.42380     6.34739     1.83302     5.78079
    388      130    1  -0.84760    15.25515    17.34935     9.65176
    389      130    2   0.42380    16.25562    17.28636     9.79068
    390      130    2   0.42380    14.72623    17.25691    10.50961
    391      131    1  -0.84760    12.44847     6.01082     3.00012
    392      131    2   0.42380    11.81450     5.24127     3.17359
    393      131    2   0.42380    13.00235     6.26207     3.80901
    394      132    1  -0.84760     7.92188     5.07011     0.68361
    395      132    2   0.42380     7.81566     4.07664     0.84466
    396      132    2   0.42380     7.55624     5.63819     1.43714
    397      133    1  -0.84760    15.06783     8.24345    13.27051
    398      133    2   0.42380    14.81618     9.08050    12.76038
    399      133    2   0.42380    15.13233     8.38908    14.26993
    400      134    1  -0.84760    14.15564    10.13501     0.89726
    401      134    2   0.42380    14.03223     9.32946     1.49731
    402      134    2   0.42380    13.29318    10.45413     0.47472
    403      135    1  -0.84760     6.93149    16.38737    18.31103
    404      135    2   0.42380     6.45154    17.03568    17.69984
    405      135    2   0.42380     7.37105    15.62221    17.81551
    406      136    1  -0.84760    19.99888     8.19587     8.21390
    407      136    2   0.42380    19.71885     7.90921     9.14321
    408      136    2   0.42380    20.00685     9.20041     8.09125
    409      137    1  -0.84760     3.87538    16.55991     9.11822
    410      137    2   0.42380     3.25218    17.34937     9.00602
    411      137    2   0.42380     4.57154    16.69996     9.83929
    412      138    1  -0.84760    18.51335     1.80581    16.74985
    413      138    2   0.42380    18.99081     1.21544    16.08074
    414      138    2   0.42380    18.19553     2.68152    16.35447
    415      139    1  -0.84760    10.21072    18.71520    14.82206
    416      139    2   0.42380    10.82192    18.12380    14.27352
    417      139    2   0.42380     9.60333    19.29493    14.25708
    418      140    1  -0.84760     2.82911    16.59581    11.84775
    419      140    2   0.42380     2.65446    16.94822    12.78023
    420      140    2   0.42380     3.13646    15.63164    11.83625
    421      141    1  -0.84760     1.23670    19.26642    18.37291
    422      141    2   0.42380     1.86943    19.75953    18.98992
    423      141    2   0.42380     0.70157    18.54671    18.84181
    424      142    1  -0.84760     5.20649     3.45066    19.78235
    425      142    2   0.42380     4.44958     3.07724    19.22390
    426      142    2   0.42380     5.95956     3.83666    19.22729
    427      143    1  -0.84760    11.12798    15.44912     3.43259
    428      143    2   0.42380    11.86790    14.90658     3.00555
    429      143    2   0.42380    10.55354    15.94039     2.75962
    430      144    1  -0.84760    19.56692     5.97980    10.42879