  Lammps topological information                           
                                                           
              801  atoms
              534  bonds
              267  angles
   
                2  atom types
                1  bond types
                1  angle types
   
       0.00000      20.00000  xlo xhi
       0.00000      20.00000  ylo yhi
       0.00000      20.00000  zlo zhi
   
