LAMMPS data file via write_data, version 17 Nov 2015, timestep = 30150

801 atoms
2 atom types
534 bonds
1 bond types
267 angles
1 angle types

0.0000000000000000e+00 2.0000000000000000e+01 xlo xhi
0.0000000000000000e+00 2.0000000000000000e+01 ylo yhi
0.0000000000000000e+00 2.0000000000000000e+01 zlo zhi

Masses

1 15.9994
2 1.008

Pair Coeffs # lj/cut/coul/long

1 0.15525 3.188
2 0.039675 0.65

Bond Coeffs # harmonic

1 554.29 1

Angle Coeffs # harmonic

1 45.7695 109.4

Atoms # full

120 40 2 4.2380000000000001e-01 5.8454452967622101e+00 6.4017442187936835e-01 3.5482785577398337e+00 0 1 0
490 164 1 -8.4760000000000002e-01 2.6081895172561906e+00 3.3713530966080922e+00 3.8367288832921740e+00 0 0 0
491 164 2 4.2380000000000001e-01 3.4376633875957023e+00 3.0711806722558013e+00 3.3154297737164677e+00 0 0 0
492 164 2 4.2380000000000001e-01 1.8418828208346316e+00 2.8055826069357885e+00 3.4650371788847170e+00 0 0 0
7 3 1 -8.4760000000000002e-01 5.3792066564964394e+00 2.5722777640005980e+00 3.2183133323327704e+00 0 0 0
8 3 2 4.2380000000000001e-01 5.8651729222474698e+00 2.8626781631114260e+00 2.4066592573019365e+00 0 0 0
9 3 2 4.2380000000000001e-01 5.8009307252254096e+00 3.0273446608149830e+00 4.0314715573651441e+00 0 0 0
589 197 1 -8.4760000000000002e-01 4.6175435840552365e-01 9.6667104313105201e-01 4.0596461932749799e+00 1 0 0
441 147 2 4.2380000000000001e-01 3.1663604509613603e+00 4.5317518030382846e+00 4.9071569722374715e+00 0 0 0
439 147 1 -8.4760000000000002e-01 3.2276121375626503e+00 5.3440330621954688e+00 5.4850842364811756e+00 0 0 0
11 4 2 4.2380000000000001e-01 5.3229857566527539e-01 2.3895815677273413e+00 1.2808242984849698e+00 0 0 0
440 147 2 4.2380000000000001e-01 2.2687244837240215e+00 5.3604689176311844e+00 5.8515187387476839e+00 0 0 0
591 197 2 4.2380000000000001e-01 5.3118336869403437e-01 8.6319654546185354e-01 5.0951899273819432e+00 1 0 0
411 137 2 4.2380000000000001e-01 4.7497778969485358e+00 3.6800979877155808e+00 2.5566759912623183e-01 0 0 0
233 78 2 4.2380000000000001e-01 1.9995205110814148e+01 4.9302117303958886e+00 5.5735644280070646e+00 0 0 0
232 78 1 -8.4760000000000002e-01 4.9336286011285396e-01 5.1021475224343220e+00 6.4381219207763944e+00 1 0 0
410 137 2 4.2380000000000001e-01 3.5250235443671807e+00 4.7115020585566825e+00 2.1104479029103440e-01 0 0 0
409 137 1 -8.4760000000000002e-01 3.8234756341044389e+00 3.7974774665050814e+00 1.9920666774697498e+01 0 0 -1
463 155 1 -8.4760000000000002e-01 3.8458977606223717e+00 6.4248649657001096e+00 6.4225657754893661e-01 0 0 1
590 197 2 4.2380000000000001e-01 4.0995987372037673e-01 3.1092206500608954e-02 3.6609350353119035e+00 1 0 0
119 40 2 4.2380000000000001e-01 6.9189808624817948e+00 1.9993442534102723e+01 4.5021156418429262e+00 0 0 0
608 203 2 4.2380000000000001e-01 4.1352819559515073e+00 1.8679361641374728e+00 5.2319230000203722e+00 0 0 0
607 203 1 -8.4760000000000002e-01 3.7922611412772986e+00 1.3291561283283111e+00 6.0522483534543481e+00 0 0 0
780 260 2 4.2380000000000001e-01 2.5843100910585965e+00 2.2654117183298559e+00 2.9796776805701325e-01 0 0 1
778 260 1 -8.4760000000000002e-01 1.7762304885599063e+00 1.6206779462202252e+00 3.5200409750542255e-01 0 0 1
464 155 2 4.2380000000000001e-01 4.8031381529071187e+00 6.2563711128940298e+00 8.7698878552854997e-01 0 0 1
154 52 1 -8.4760000000000002e-01 6.5335265479009736e+00 2.8961270459770754e+00 7.2601399030626312e-01 0 0 0
279 93 2 4.2380000000000001e-01 2.0211744576515698e+00 6.7132779333180066e+00 2.7927006807600185e-01 1 0 1
767 256 2 4.2380000000000001e-01 2.2812705081792530e+00 8.6150053482553324e-01 6.3604589334303459e+00 0 0 0
609 203 2 4.2380000000000001e-01 4.4555094570680387e+00 1.5124728699805836e+00 6.8095082944322387e+00 0 0 0
779 260 2 4.2380000000000001e-01 2.0897244068986307e+00 8.9160266801581178e-01 1.9703515621949673e+01 0 0 0
156 52 2 4.2380000000000001e-01 6.9867275363028849e+00 2.1007211180716876e+00 3.0845701889065569e-01 0 0 0
652 218 1 -8.4760000000000002e-01 6.9485217706305296e+00 3.7690636264957309e+00 5.2902768382150711e+00 0 0 0
40 14 1 -8.4760000000000002e-01 1.2037534535900209e+01 5.9954425706691765e+00 3.7957498861895220e+00 0 0 0
42 14 2 4.2380000000000001e-01 1.1188395919311581e+01 5.6302931562347807e+00 3.3409520111331075e+00 0 0 0
238 80 1 -8.4760000000000002e-01 9.8324527755841604e+00 4.8705913679988679e+00 2.5109837148975584e+00 0 0 0
239 80 2 4.2380000000000001e-01 9.1843678855416115e+00 5.5679963315660386e+00 2.2067883209102779e+00 0 0 0
240 80 2 4.2380000000000001e-01 1.0102540150435805e+01 4.3829618043942755e+00 1.6785915942713467e+00 0 0 0
682 228 1 -8.4760000000000002e-01 9.7850937056573830e+00 2.8402454665102344e+00 4.4642953038778206e+00 0 0 0
684 228 2 4.2380000000000001e-01 9.8620383645485017e+00 3.5740346845927236e+00 3.8095919922777504e+00 0 0 0
689 230 2 4.2380000000000001e-01 8.5398761951076470e+00 1.6979792588006346e+00 5.5050459953271007e+00 0 0 0
683 228 2 4.2380000000000001e-01 1.0571838543440737e+01 2.2251552651644642e+00 4.2835588167636001e+00 0 0 0
341 114 2 4.2380000000000001e-01 1.1986161229276433e+01 2.3832942991133845e+00 1.2613645317988196e+00 0 1 0
340 114 1 -8.4760000000000002e-01 1.2646855533499561e+01 2.1150694291090040e+00 1.9861208252980131e+00 0 1 0
654 218 2 4.2380000000000001e-01 7.2150937869264835e+00 4.3208112253429576e+00 6.0626295005286712e+00 0 0 0
653 218 2 4.2380000000000001e-01 7.7865794459431106e+00 3.6364345546637251e+00 4.6575675467165789e+00 0 0 0
434 145 2 4.2380000000000001e-01 1.0404320758772963e+01 3.2036913195850154e+00 6.4914023863820862e+00 0 0 0
688 230 1 -8.4760000000000002e-01 8.0189147480619525e+00 9.0723730274311143e-01 5.7642683039559115e+00 0 0 0
29 10 2 4.2380000000000001e-01 1.2050113503121032e+01 8.9589901880294542e-01 3.3680575196799980e+00 0 1 0
28 10 1 -8.4760000000000002e-01 1.1831602726112763e+01 5.7170321456900286e-01 4.3003913955839410e+00 0 1 0
342 114 2 4.2380000000000001e-01 1.3032376576472613e+01 2.9568372455621783e+00 2.4318474278947408e+00 0 1 0
170 57 2 4.2380000000000001e-01 1.3086764876028360e+01 4.2053278024202700e-01 1.6478290970614025e+00 0 1 1
690 230 2 4.2380000000000001e-01 8.6918524108477140e+00 2.4234664103427411e-01 6.1393108183350273e+00 0 0 0
446 149 2 4.2380000000000001e-01 7.2845422250987495e+00 6.5272994366615285e+00 5.1742117086392836e-01 0 0 1
41 14 2 4.2380000000000001e-01 1.2462236609874131e+01 6.7958718010991515e+00 3.2975831551358943e+00 0 0 0
12 4 2 4.2380000000000001e-01 1.9944705916644025e+01 2.2690692818029632e+00 2.8445656672852406e+00 -1 0 0
10 4 1 -8.4760000000000002e-01 1.9771739026649922e+01 2.6070393981566085e+00 1.9138385617302662e+00 -1 0 0
705 235 2 4.2380000000000001e-01 1.9696616190931767e+01 3.7182323442889595e+00 3.5240452847618503e-01 0 0 1
719 240 2 4.2380000000000001e-01 1.3398844123681839e+01 4.9590065701698354e+00 3.3472311987077963e+00 0 0 0
749 250 2 4.2380000000000001e-01 1.3476629865756516e+01 8.3843608069329434e-01 5.4649140346822573e+00 0 0 0
14 5 2 4.2380000000000001e-01 1.9385307965116908e+01 4.0983817663489797e+00 2.9790866568406758e+00 0 0 0
718 240 1 -8.4760000000000002e-01 1.4160856470722397e+01 4.3881445327634871e+00 3.1092458178065496e+00 0 0 0
15 5 2 4.2380000000000001e-01 1.8386070265756885e+01 4.3569047065179278e+00 4.3497955811162923e+00 0 0 0
522 174 2 4.2380000000000001e-01 1.8422157971303115e+01 1.5441428789730733e+00 1.2550620547946103e+00 0 0 0
13 5 1 -8.4760000000000002e-01 1.9075915744656925e+01 4.7430154786466101e+00 3.7034375524290772e+00 0 0 0
193 65 1 -8.4760000000000002e-01 1.7065405384338032e+01 3.9118384949680811e+00 5.3998257518125197e+00 0 0 0
195 65 2 4.2380000000000001e-01 1.6720111878999898e+01 2.9938993573737158e+00 5.5572950989630794e+00 0 0 0
245 82 2 4.2380000000000001e-01 1.5709000739333906e+01 1.7406868305890804e+00 2.1320134360802181e-01 0 0 0
246 82 2 4.2380000000000001e-01 1.4289801469176046e+01 1.8174088228942520e+00 9.3336272542959753e-01 0 0 0
271 91 1 -8.4760000000000002e-01 1.5517572500206199e+01 1.7389456211328260e+00 3.1444659113338762e+00 0 0 0
272 91 2 4.2380000000000001e-01 1.5227931931436583e+01 1.2302594907308508e+00 4.0137555580402395e+00 0 0 0
273 91 2 4.2380000000000001e-01 1.5154396438087392e+01 2.6802030827464729e+00 3.3365869142733739e+00 0 0 0
720 240 2 4.2380000000000001e-01 1.5003487284369033e+01 4.9719948497556139e+00 3.2028831637580759e+00 0 0 0
750 250 2 4.2380000000000001e-01 1.4657321275906341e+01 1.3043443705741460e+00 6.3681562571170014e+00 0 0 0
748 250 1 -8.4760000000000002e-01 1.4493820314307193e+01 8.0104633042811357e-01 5.4969389370471875e+00 0 0 0
521 174 2 4.2380000000000001e-01 1.6940416602270588e+01 1.1425205457656933e+00 1.8038783962950313e+00 0 0 0
396 132 2 4.2380000000000001e-01 1.6225630619509634e+01 5.8712871798634110e+00 1.6987497448240514e+00 0 0 1
765 255 2 4.2380000000000001e-01 1.6492365273548891e+01 5.4965930962898870e+00 4.4104311734320039e+00 0 0 0
763 255 1 -8.4760000000000002e-01 1.6080465859673797e+01 6.2031977717918467e+00 3.7619786522583412e+00 0 0 0
520 174 1 -8.4760000000000002e-01 1.7622022212767163e+01 9.5155331512190633e-01 1.0577303479313602e+00 0 0 0
394 132 1 -8.4760000000000002e-01 1.5960117163845261e+01 5.9751560006617019e+00 7.5150167887857366e-01 0 0 1
395 132 2 4.2380000000000001e-01 1.6698598661132195e+01 6.5237381597148927e+00 3.1510387531159639e-01 0 0 1
662 221 2 4.2380000000000001e-01 1.9378751260528752e+01 6.6654479128957487e+00 4.1219749040228475e+00 0 0 0
194 65 2 4.2380000000000001e-01 1.7121954436392468e+01 4.2662758563137473e+00 6.3435941149278881e+00 0 0 0
244 82 1 -8.4760000000000002e-01 1.4783406795561298e+01 2.1319198223264619e+00 1.4425491748240413e-01 0 0 0
465 155 2 4.2380000000000001e-01 3.7270816072800810e+00 7.4116869104328087e+00 7.8631643396922390e-01 0 0 1
498 166 2 4.2380000000000001e-01 4.4378650512913840e+00 6.6510257884587114e+00 5.1582804631059131e+00 0 0 0
534 178 2 4.2380000000000001e-01 4.0602101300096489e+00 9.7624038501807497e+00 1.2184329297589767e+00 0 0 1
532 178 1 -8.4760000000000002e-01 3.5536383088382388e+00 9.1350025812608706e+00 6.3170614822039961e-01 0 0 1
642 214 2 4.2380000000000001e-01 6.3339837148926064e+00 8.1840442130137614e+00 4.0655243007046256e+00 0 0 0
58 20 1 -8.4760000000000002e-01 4.4895675400370099e+00 1.0609247686082107e+01 2.7696893846274424e+00 0 0 0
59 20 2 4.2380000000000001e-01 5.1462436597093770e+00 1.1362393101039945e+01 2.5485275114005383e+00 0 0 0
337 113 1 -8.4760000000000002e-01 1.9519352067364344e+00 1.1767224229065178e+01 2.8803004247663209e+00 0 0 0
338 113 2 4.2380000000000001e-01 2.6023382382619813e+00 1.0993443524466109e+01 2.7495354988664191e+00 0 0 0
362 121 2 4.2380000000000001e-01 2.3162701573041278e+00 8.8292952699259502e+00 4.5732191108082816e+00 0 0 0
60 20 2 4.2380000000000001e-01 4.4274185980737384e+00 1.0626761990845010e+01 3.8155317950223986e+00 0 0 0
309 103 2 4.2380000000000001e-01 5.1402763303462713e+00 1.0491582439258238e+01 6.3361199567125306e+00 0 0 0
361 121 1 -8.4760000000000002e-01 2.3591148190808497e+00 8.7186127099899959e+00 5.5671131653210058e+00 0 0 0
496 166 1 -8.4760000000000002e-01 4.8007403889646056e+00 7.5868885457195869e+00 5.1506040073523387e+00 0 0 0
497 166 2 4.2380000000000001e-01 3.9553007825764404e+00 8.1235521145476088e+00 5.2173715791362465e+00 0 0 0
789 263 2 4.2380000000000001e-01 5.4451500151754384e-01 1.2080934857325067e+01 3.9085308085963946e+00 0 0 0
307 103 1 -8.4760000000000002e-01 4.7059590674456313e+00 1.0975466922947632e+01 5.5124961585186432e+00 0 0 0
269 90 2 4.2380000000000001e-01 2.4348034031727259e+00 8.7890915782683567e+00 2.0041017202110951e+00 1 0 0
791 264 2 4.2380000000000001e-01 6.6323691323906830e+00 1.1851055714673057e+01 4.5409207538042020e+00 0 0 0
363 121 2 4.2380000000000001e-01 2.1689819690940411e+00 9.6466766322782647e+00 5.9293659033496189e+00 0 0 0
533 178 2 4.2380000000000001e-01 3.1613450819108020e+00 9.6980722236739627e+00 1.9891395181570402e+01 0 0 0
308 103 2 4.2380000000000001e-01 4.3706913544014316e+00 1.1865930537211506e+01 5.9299412556556002e+00 0 0 0
790 264 1 -8.4760000000000002e-01 6.7099393851540627e+00 1.2206974919203923e+01 3.5790695320742687e+00 0 0 0
283 95 1 -8.4760000000000002e-01 5.5838710306688117e+00 1.2418876298246269e+01 4.2788823878641957e-01 0 0 1
339 113 2 4.2380000000000001e-01 1.3686450072676442e+00 1.1773220716586037e+01 2.0443431522115962e+00 0 0 0
268 90 1 -8.4760000000000002e-01 1.7871486680789079e+00 8.9079432154347149e+00 2.7719383922449086e+00 1 0 0
270 90 2 4.2380000000000001e-01 9.0777562824556446e-01 9.3220062487492505e+00 2.4126711496349369e+00 1 0 0
641 214 2 4.2380000000000001e-01 6.3122634619978273e+00 9.5313073840794331e+00 3.2223108937270015e+00 0 0 0
285 95 2 4.2380000000000001e-01 5.1370069199614017e+00 1.3342696944608502e+01 3.6804944693689401e-01 0 0 1
788 263 2 4.2380000000000001e-01 1.3235281336393576e-01 1.1638143957348317e+01 5.3849568630058906e+00 0 0 0
663 221 2 4.2380000000000001e-01 3.9648802702653596e-01 8.0192751996578142e+00 3.7800173979685381e+00 1 0 0
46 16 1 -8.4760000000000002e-01 1.2489013422839179e+00 1.3065859974327385e+01 1.9943305562003534e+01 0 0 -1
99 33 2 4.2380000000000001e-01 1.1752202234676856e+01 6.5211978758153419e+00 5.3690974222695180e+00 0 0 0
610 204 1 -8.4760000000000002e-01 8.3737610168969852e+00 7.1882755039671364e+00 1.8742289446172951e+00 0 0 0
93 31 2 4.2380000000000001e-01 7.3815988803891388e+00 1.2060590481810340e+01 9.8413427845204371e-01 0 0 1
97 33 1 -8.4760000000000002e-01 1.1610743765495330e+01 6.8375272928805533e+00 6.3420937522100642e+00 0 0 0
612 204 2 4.2380000000000001e-01 8.7773298211149040e+00 7.8086102015526064e+00 1.1673458253724667e+00 0 0 0
611 204 2 4.2380000000000001e-01 7.9440620882603969e+00 7.7476966977259298e+00 2.6351113880043964e+00 0 0 0
640 214 1 -8.4760000000000002e-01 6.9413121650130130e+00 8.8559367341329907e+00 3.5889547536090589e+00 0 0 0
67 23 1 -8.4760000000000002e-01 1.3083685702271103e+01 8.1798952017702113e+00 2.5064211080164944e+00 0 0 0
69 23 2 4.2380000000000001e-01 1.2636490058111578e+01 8.2513236606394305e+00 1.6021097695050777e+00 0 0 0
178 60 1 -8.4760000000000002e-01 1.1000995499416863e+01 1.1238833515357728e+01 4.3967897998325247e+00 0 0 0
179 60 2 4.2380000000000001e-01 1.1585660305542747e+01 1.0593322188565656e+01 4.8462926327728493e+00 0 0 0
180 60 2 4.2380000000000001e-01 1.0043569182508353e+01 1.1127161153499470e+01 4.7731912135394028e+00 0 0 0
225 75 2 4.2380000000000001e-01 1.0081488158679052e+01 1.2836319098618370e+01 3.4611343553994076e+00 0 0 0
226 76 1 -8.4760000000000002e-01 8.3277565311559858e+00 1.0572067467963564e+01 5.4483543802781327e+00 0 0 0
227 76 2 4.2380000000000001e-01 7.8361263261163518e+00 9.9689267732833500e+00 4.7936215341059620e+00 0 0 0
228 76 2 4.2380000000000001e-01 8.3454086541872403e+00 1.0005394544882792e+01 6.2818588704489304e+00 0 0 0
300 100 2 4.2380000000000001e-01 8.4032330542389495e+00 9.9898220098506947e+00 1.6513981997752475e-01 0 0 0
91 31 1 -8.4760000000000002e-01 8.3727085384276734e+00 1.2099973764852402e+01 8.5648303885823085e-01 0 0 1
92 31 2 4.2380000000000001e-01 8.7506822480948792e+00 1.2443691725987637e+01 1.7310284814618810e+00 0 0 1
223 75 1 -8.4760000000000002e-01 9.2170961702080039e+00 1.3246835352544954e+01 3.1213682605317179e+00 0 0 0
96 32 2 4.2380000000000001e-01 1.2006244312492340e+01 1.1619214971310196e+01 2.9857969926099273e+00 0 0 0
502 168 1 -8.4760000000000002e-01 1.2909327775816857e+01 9.2586132087121147e+00 5.3862432209094555e+00 0 0 0
94 32 1 -8.4760000000000002e-01 1.2650006937483701e+01 1.2104788701830394e+01 2.3551878739808521e+00 0 0 0
552 184 2 4.2380000000000001e-01 1.2994561567929660e+01 1.1472220748147800e+01 7.6852988198480554e-01 0 0 0
792 264 2 4.2380000000000001e-01 7.6728793557227855e+00 1.2417008526161531e+01 3.4637193990283941e+00 0 0 0
38 13 2 4.2380000000000001e-01 1.0447376168557968e+01 8.8703960378738849e+00 2.5310581575670099e-01 0 0 1
98 33 2 4.2380000000000001e-01 1.1994734845330012e+01 7.8026840970116744e+00 6.2966500780609493e+00 0 0 0
95 32 2 4.2380000000000001e-01 1.2450747326936114e+01 1.3078760010984613e+01 2.4872935975305843e+00 0 0 0
504 168 2 4.2380000000000001e-01 1.3086372430847691e+01 8.9097817017090772e+00 4.4491800744734444e+00 0 0 0
582 194 2 4.2380000000000001e-01 1.3233558425923107e+01 1.2933734507355439e+01 5.9330678000899066e+00 0 0 0
668 223 2 4.2380000000000001e-01 7.6610023604810529e+00 1.2104510451438280e+01 6.4287296186092986e+00 0 0 0
37 13 1 -8.4760000000000002e-01 1.1426176826822823e+01 8.6317682415652239e+00 2.8953721183236403e-01 0 0 1
68 23 2 4.2380000000000001e-01 1.4023063127043059e+01 8.3650272235626435e+00 2.3040091365201323e+00 0 0 0
764 255 2 4.2380000000000001e-01 1.5905193386556377e+01 7.0336043703332365e+00 4.3459499410924334e+00 0 0 0
787 263 1 -8.4760000000000002e-01 1.9719332301482570e+01 1.2078860511160027e+01 4.5533993735134581e+00 -1 0 0
661 221 1 -8.4760000000000002e-01 1.9557622090304161e+01 7.6400404550997738e+00 4.2862730472881569e+00 0 0 0
503 168 2 4.2380000000000001e-01 1.3785596465203884e+01 9.3335706669542766e+00 5.8563530797498400e+00 0 0 0
250 84 1 -8.4760000000000002e-01 1.5478836257160058e+01 8.0593918730341656e+00 6.0359192788804190e+00 0 0 0
242 81 2 4.2380000000000001e-01 1.9216398039947855e+01 1.1412100603325387e+01 1.7351553417912400e+00 0 0 0
159 53 2 4.2380000000000001e-01 1.6490681793970797e+01 8.1447408458763064e+00 2.2581577227274430e+00 0 0 0
241 81 1 -8.4760000000000002e-01 1.9841667242359037e+01 1.0676912219111996e+01 1.4589086056365372e+00 0 0 0
157 53 1 -8.4760000000000002e-01 1.5980291746450668e+01 8.9474298415526583e+00 2.0040236350664258e+00 0 0 0
158 53 2 4.2380000000000001e-01 1.6202371731505288e+01 9.7278349067943726e+00 2.5720065974815776e+00 0 0 0
547 183 1 -8.4760000000000002e-01 1.5817373650601613e+01 1.1512712424091026e+01 5.5644741999670089e+00 0 0 0
548 183 2 4.2380000000000001e-01 1.6426252739210938e+01 1.0739024336247876e+01 5.3401114361782254e+00 0 0 0
700 234 1 -8.4760000000000002e-01 1.7763678349831899e+01 1.0016189998701844e+01 4.4095709869531863e+00 0 0 0
701 234 2 4.2380000000000001e-01 1.8421940374036858e+01 9.2503520689539851e+00 4.3186084904812487e+00 0 0 0
702 234 2 4.2380000000000001e-01 1.8306374953019258e+01 1.0865131649895396e+01 4.4850506733907416e+00 0 0 0
243 81 2 4.2380000000000001e-01 1.9304107611877971e+01 1.0321085409663903e+01 6.8804276203773951e-01 0 0 0
606 202 2 4.2380000000000001e-01 1.5542966800954359e+01 9.3478645032570373e+00 2.9691024156678919e-01 0 0 0
251 84 2 4.2380000000000001e-01 1.6439045665469873e+01 8.0074762113891875e+00 6.3446995564734809e+00 0 0 0
743 248 2 4.2380000000000001e-01 1.8636037985985300e+01 7.3892107804979297e+00 6.2551575982860594e+00 0 0 0
275 92 2 4.2380000000000001e-01 1.5309661285126916e+01 1.2477812763603676e+01 4.2140315869781579e+00 0 0 0
276 92 2 4.2380000000000001e-01 1.4628466101627701e+01 1.2876020376594500e+01 2.8001947507056650e+00 0 0 0
320 107 2 4.2380000000000001e-01 1.6916590926406890e+01 1.2671866052951705e+01 2.5547180755565453e+00 0 0 0
319 107 1 -8.4760000000000002e-01 1.7593944266625712e+01 1.2388323714192774e+01 1.8765525309075595e+00 0 0 0
274 92 1 -8.4760000000000002e-01 1.5228537094224230e+01 1.3240163470857913e+01 3.5114578714788593e+00 0 0 0
321 107 2 4.2380000000000001e-01 1.7343518095919539e+01 1.2816175395357424e+01 1.0314964045564481e+00 0 0 0
549 183 2 4.2380000000000001e-01 1.5592452366695547e+01 1.1359062093850152e+01 6.5308057172010479e+00 0 0 0
114 38 2 4.2380000000000001e-01 8.6485755957067989e-01 1.9664106585940697e+01 7.2362595036315314e-01 1 0 0
118 40 1 -8.4760000000000002e-01 6.0420148685589359e+00 1.9769243449180987e+01 4.0539164299766206e+00 0 0 0
444 148 2 4.2380000000000001e-01 4.5876945594068932e+00 1.9240532601716858e+01 5.8707775909106310e+00 0 -1 0
76 26 1 -8.4760000000000002e-01 6.2234085195723310e+00 1.5075901218123391e+01 2.8726778438958678e+00 0 0 0
78 26 2 4.2380000000000001e-01 6.2747643191607647e+00 1.5110984645996663e+01 3.8858946360051037e+00 0 0 0
229 77 1 -8.4760000000000002e-01 3.3901294192107922e+00 1.4174044298268798e+01 3.7507881465371873e+00 0 0 0
230 77 2 4.2380000000000001e-01 2.9612096967176136e+00 1.3438549686810431e+01 3.1725125026692056e+00 0 0 0
231 77 2 4.2380000000000001e-01 4.0381573239399726e+00 1.4718629284979095e+01 3.1820778419345950e+00 0 0 0
772 258 1 -8.4760000000000002e-01 4.9814478718479522e+00 1.7573315631689574e+01 2.5924735163917325e+00 0 0 0
773 258 2 4.2380000000000001e-01 5.4704456773653627e+00 1.6743358887576814e+01 2.9042983245821952e+00 0 0 0
774 258 2 4.2380000000000001e-01 5.4564975316484992e+00 1.8274849466878191e+01 3.1242438849493275e+00 0 0 0
722 241 2 4.2380000000000001e-01 2.2397515762323859e+00 1.5762325903343893e+01 3.9122874624585684e+00 1 0 0
328 110 1 -8.4760000000000002e-01 3.6458279838069805e+00 1.3451259126402274e+01 6.4795689498826983e+00 0 0 0
329 110 2 4.2380000000000001e-01 3.6786262102535798e+00 1.3908168520216551e+01 5.5638980121596617e+00 0 0 0
671 224 2 4.2380000000000001e-01 5.8820881614098823e+00 1.7188915422474484e+01 5.5825636648836845e+00 0 0 0
56 19 2 4.2380000000000001e-01 3.3595964414484061e+00 1.7229434631137181e+01 1.5717117603771023e+00 0 0 0
57 19 2 4.2380000000000001e-01 1.8528953850620837e+00 1.6642784154255548e+01 1.8181185812706901e+00 0 0 0
55 19 1 -8.4760000000000002e-01 2.5377227541562966e+00 1.6927935382825051e+01 1.0988710852649386e+00 0 0 0
494 165 2 4.2380000000000001e-01 5.8113257846854109e+00 1.8737771547561152e+01 1.0588416829026612e+00 0 0 1
442 148 1 -8.4760000000000002e-01 4.7089165800260391e+00 1.8354533736191225e+01 6.4014711071607637e+00 0 -1 0
672 224 2 4.2380000000000001e-01 6.3015176624670932e+00 1.5833599153730725e+01 6.1841395349857544e+00 0 0 0
670 224 1 -8.4760000000000002e-01 6.3704033081423130e+00 1.6375560730313278e+01 5.2951062811315177e+00 0 0 0
164 55 2 4.2380000000000001e-01 3.7092161553404188e+00 1.5502794636697061e+01 2.3251403271113436e-01 0 0 0
721 241 1 -8.4760000000000002e-01 1.4350119469247524e+00 1.6237092957778170e+01 3.5812129211768102e+00 1 0 0
713 238 2 4.2380000000000001e-01 6.2715720238378048e-01 1.7744645327769533e+01 3.5749348220584731e+00 0 -1 0
723 241 2 4.2380000000000001e-01 6.3148244457540625e-01 1.5742845633041235e+01 3.9114327223104861e+00 1 0 0
518 173 2 4.2380000000000001e-01 2.9521755250865311e-02 1.4294377859076183e+01 8.9296163007701168e-01 0 0 0
47 16 2 4.2380000000000001e-01 2.0682339331236510e+00 1.3582296347120703e+01 1.9808021683381966e+01 0 0 -1
493 165 1 -8.4760000000000002e-01 6.7169677685519913e+00 1.8888304631270547e+01 5.9760259273980398e-01 0 0 1
224 75 2 4.2380000000000001e-01 9.3051340283537840e+00 1.4247855648104403e+01 3.2965023030240355e+00 0 0 0
77 26 2 4.2380000000000001e-01 6.4511364509401652e+00 1.4111332516371901e+01 2.6758016575358230e+00 0 0 0
531 177 2 4.2380000000000001e-01 7.0337686588954398e+00 1.5828341524238057e+01 1.3791532796798993e+00 0 0 0
580 194 1 -8.4760000000000002e-01 1.3073578077649161e+01 1.3679049771631060e+01 6.5638887529810290e+00 0 0 0
30 10 2 4.2380000000000001e-01 1.2040710516701479e+01 1.9590232184561888e+01 4.3013510409355442e+00 0 0 0
184 62 1 -8.4760000000000002e-01 9.9012590329105894e+00 1.6393189963825694e+01 2.0735591263162232e+00 0 0 0
185 62 2 4.2380000000000001e-01 9.0453524895518651e+00 1.6412473389637579e+01 1.5119368212229700e+00 0 0 0
186 62 2 4.2380000000000001e-01 9.6754393487920893e+00 1.6959078829401868e+01 2.8878508125021050e+00 0 0 0
730 244 1 -8.4760000000000002e-01 9.0445309913938559e+00 1.7302962837148616e+01 4.6838285559911510e+00 0 0 0
731 244 2 4.2380000000000001e-01 8.1071839149095624e+00 1.7017512682865569e+01 4.9461689123515677e+00 0 0 0
732 244 2 4.2380000000000001e-01 9.3765339022762770e+00 1.7948814721804094e+01 5.4367199502404189e+00 0 0 0
745 249 1 -8.4760000000000002e-01 1.2057212547522079e+01 1.4932649267163081e+01 2.6434099842333225e+00 0 0 0
746 249 2 4.2380000000000001e-01 1.1264462159703605e+01 1.5446768420290235e+01 2.2813011301810366e+00 0 0 0
747 249 2 4.2380000000000001e-01 1.2302877725964336e+01 1.5408925442825844e+01 3.5011757230895624e+00 0 0 0
658 220 1 -8.4760000000000002e-01 1.1506813364844145e+01 1.5815444752029315e+01 5.4813187816307583e+00 0 0 0
660 220 2 4.2380000000000001e-01 1.0927607070213698e+01 1.6463450730600758e+01 4.9496729471333492e+00 0 0 0
358 120 1 -8.4760000000000002e-01 1.2735980437397092e+01 1.7918969977724945e+01 3.7239547031367359e+00 0 0 0
659 220 2 4.2380000000000001e-01 1.2112014672206188e+01 1.6399992887554873e+01 6.0635133329647433e+00 0 0 0
360 120 2 4.2380000000000001e-01 1.2689561542839298e+01 1.8096343767949545e+01 2.7420598488744812e+00 0 0 0
581 194 2 4.2380000000000001e-01 1.2605685044186428e+01 1.4393304103391516e+01 6.0051535367401572e+00 0 0 0
529 177 1 -8.4760000000000002e-01 7.5918873379986938e+00 1.6170026956383772e+01 5.9895509699990745e-01 0 0 0
528 176 2 4.2380000000000001e-01 1.0933632214571148e+01 1.6988409507427804e+01 7.0126879947701692e-01 0 0 1
169 57 1 -8.4760000000000002e-01 1.3108270287413044e+01 1.9544470409495371e+01 1.1782923104161607e+00 0 0 1
669 223 2 4.2380000000000001e-01 8.2414667807068263e+00 1.3633921808929875e+01 6.6180433029516257e+00 0 0 0
495 165 2 4.2380000000000001e-01 7.0468728921867712e+00 1.7955587540268059e+01 5.2090350315657619e-01 0 0 1
462 154 2 4.2380000000000001e-01 1.3566408554301498e+01 1.5707083388691366e+01 1.9843506621979056e+01 0 0 -1
112 38 1 -8.4760000000000002e-01 1.9934252096268704e+01 1.9292563019733429e+01 9.1118387007518420e-01 0 0 0
618 206 2 4.2380000000000001e-01 1.9081452005878180e+01 1.3823678048814443e+01 3.8536607164993555e+00 0 0 0
354 118 2 4.2380000000000001e-01 1.6573934511638029e+01 1.3810238304087193e+01 5.7445721526198668e+00 0 0 0
359 120 2 4.2380000000000001e-01 1.3534706835110473e+01 1.7311362570688988e+01 3.8252515409652159e+00 0 0 0
65 22 2 4.2380000000000001e-01 1.6726387039826328e+01 1.9336005720834926e+01 9.3223072102273530e-01 0 0 0
714 238 2 4.2380000000000001e-01 1.9746406494459183e+01 1.8410202789316457e+01 2.4478997189673608e+00 -1 -1 0
113 38 2 4.2380000000000001e-01 1.9240864772076858e+01 1.9947470887992861e+01 5.6944615195139281e-01 0 0 0
64 22 1 -8.4760000000000002e-01 1.5884355768781420e+01 1.8806947839620396e+01 1.0382472473199813e+00 0 0 0
712 238 1 -8.4760000000000002e-01 1.9829520000950644e+01 1.8330991267452820e+01 3.4674120148072021e+00 -1 -1 0
617 206 2 4.2380000000000001e-01 1.8831005833660122e+01 1.4910010205780614e+01 2.7442191743839048e+00 0 0 0
353 118 2 4.2380000000000001e-01 1.7823477362724088e+01 1.4795921310084633e+01 5.2386754337736852e+00 0 0 0
562 188 1 -8.4760000000000002e-01 1.4764815880415107e+01 1.6038230040537869e+01 3.9579642317495769e+00 0 0 0
564 188 2 4.2380000000000001e-01 1.5343843067988617e+01 1.6075478141883828e+01 3.1312710209630747e+00 0 0 0
616 206 1 -8.4760000000000002e-01 1.8808779012102779e+01 1.4795213280974149e+01 3.7502525974250429e+00 0 0 0
171 57 2 4.2380000000000001e-01 1.4117786928987677e+01 1.9279885532770901e+01 1.1296247068170835e+00 0 0 1
66 22 2 4.2380000000000001e-01 1.6161414807515513e+01 1.7980112783925861e+01 1.5631917509486177e+00 0 0 0
563 188 2 4.2380000000000001e-01 1.5008873788998162e+01 1.5125979479177719e+01 4.3218339806962840e+00 0 0 0
571 191 1 -8.4760000000000002e-01 1.5604712827232966e+01 1.8087496961948194e+01 5.8035585546486086e+00 0 0 0
573 191 2 4.2380000000000001e-01 1.5409129720850370e+01 1.7377072819553732e+01 5.0950904249223656e+00 0 0 0
756 252 2 4.2380000000000001e-01 1.8781462641526712e+01 1.8568096297669332e+01 4.9935792676407109e+00 0 -1 0
775 259 1 -8.4760000000000002e-01 1.6892016798166374e+01 1.6447281781000353e+01 2.0667720596175996e+00 0 0 0
776 259 2 4.2380000000000001e-01 1.7053679305156791e+01 1.5749480210162275e+01 1.3505029496987231e+00 0 0 0
777 259 2 4.2380000000000001e-01 1.7575840301748862e+01 1.6326226535397716e+01 2.7946884580647278e+00 0 0 0
572 191 2 4.2380000000000001e-01 1.5126833385785794e+01 1.8912844058334773e+01 5.4841748730149469e+00 0 0 0
755 252 2 4.2380000000000001e-01 1.7415323733898237e+01 1.8364571107553115e+01 5.9088664328782183e+00 0 -1 0
352 118 1 -8.4760000000000002e-01 1.7126277853091434e+01 1.4634975210644347e+01 5.9292379778326527e+00 0 0 0
754 252 1 -8.4760000000000002e-01 1.8439036557877245e+01 1.8461014905473885e+01 5.9189841493609485e+00 0 -1 0
461 154 2 4.2380000000000001e-01 1.3573312234825996e+01 1.5060906940870009e+01 1.3133721636344913e+00 0 0 0
517 173 1 -8.4760000000000002e-01 1.9327211083054703e+01 1.5019330583105191e+01 9.1889451759490315e-01 -1 0 0
460 154 1 -8.4760000000000002e-01 1.4122161035083192e+01 1.5123692407352104e+01 4.5884892172986713e-01 0 0 0
519 173 2 4.2380000000000001e-01 1.9412697542914827e+01 1.5579434685072965e+01 6.0268500581700427e-02 -1 0 0
204 68 2 4.2380000000000001e-01 4.1250624653228973e+00 5.0759261450378439e+00 7.1185216527039117e+00 0 0 0
766 256 1 -8.4760000000000002e-01 1.3210892349905152e+00 6.6480484755065627e-01 6.7022636986987232e+00 0 0 0
768 256 2 4.2380000000000001e-01 8.4896649101915322e-01 1.5086119079044236e+00 7.0773275118021548e+00 0 0 0
202 68 1 -8.4760000000000002e-01 4.6307028802431924e+00 4.9580170625113480e+00 7.9872257853107458e+00 0 0 0
101 34 2 4.2380000000000001e-01 3.3018819238652464e+00 4.2062954174420168e+00 9.3879837800738670e+00 0 0 0
793 265 1 -8.4760000000000002e-01 5.0267036461767312e+00 2.5128085562572968e+00 1.1745867198907355e+01 0 0 0
794 265 2 4.2380000000000001e-01 4.7436070537076471e+00 1.8974321822099112e+00 1.2493201417757453e+01 0 0 0
795 265 2 4.2380000000000001e-01 4.5300295787349540e+00 3.4003137697927119e+00 1.1827532022399780e+01 0 0 0
585 195 2 4.2380000000000001e-01 1.6351758872904767e+00 2.0891999937655705e+00 1.0203233685278169e+01 0 0 0
583 195 1 -8.4760000000000002e-01 7.5569830740991328e-01 1.6387144917201333e+00 1.0402524364892448e+01 0 0 0
584 195 2 4.2380000000000001e-01 9.7939044304587564e-01 8.9746609277492351e-01 1.1091354251851362e+01 0 0 0