LAMMPS Description for a alkane with  7   carbons

          23 atoms
          22 bonds
          42 angles
          66 dihedrals

           4 atom types
           4 bond types
           6 angle types
          10 dihedral types

  -10.000   10.000 xlo xhi
  -10.000   10.000 ylo yhi
  -10.000   10.000 zlo zhi

  Masses

    1    12.01100
    2     1.00790
    3    12.01100
    4     1.00790

  Pair Coeffs

    1     0.07800     3.63530     0.01000     3.38580
    2     0.02400     2.38790
    3     0.05600     3.58180     0.01000     3.38580
    4     0.02799     2.38790

   Bond Coeffs

    1   322.01443     1.11100
    2   222.51123     1.52800
    3   222.51123     1.53000
    4   309.01404     1.11100

   Angle Coeffs

    1    34.60161   110.10000    22.53030     2.17900
    2    35.50205   108.40000     5.40031     1.80200
    3    26.50234   110.10000    22.53033     2.17900
    4    35.50205   109.00000     5.40031     1.80200
    5    58.35244   113.60000    11.17943     2.56100
    6    58.00373   115.00000     8.00134     2.56100

  Dihedral Coeffs

    1  0.1600    3    0    0
    2  0.1901    3    0    0
    3  0.0645    2    0    0
    4  0.1500    3  180    0
    5  0.0946    4    0    0
    6  0.1125    5    0    0
    7  0.1505    2    0    0
    8  0.0812    3  180    0
    9  0.1082    4    0    0
   10  0.2042    5    0    0

  Atoms

    1  1  1     -0.27000    -0.77660     1.60610    -3.72980
    2  1  3     -0.18000    -0.03660     1.09920    -2.49030
    3  1  3     -0.18000    -0.75270     1.59270    -1.23150
    4  1  3     -0.18000    -0.01270     1.08580     0.00800
    5  1  3     -0.18000    -0.72880     1.57920     1.26680
    6  1  3     -0.18000     0.01110     1.07240     2.50630
    7  1  1     -0.27000    -0.70500     1.56580     3.76510
    8  1  2      0.09000    -0.26640     1.25450    -4.62660
    9  1  2      0.09000    -1.79910     1.22880    -3.72210
   10  1  2      0.09000    -0.79130     2.69600    -3.72390
   11  1  4      0.09000     0.98600     1.47650    -2.49810
   12  1  4      0.09000    -0.02180     0.00930    -2.49630
   13  1  4      0.09000    -1.77530     1.21540    -1.22380
   14  1  4      0.09000    -0.76750     2.68250    -1.22550
   15  1  4      0.09000     0.00210    -0.00410     0.00200
   16  1  4      0.09000     1.00990     1.46310     0.00030
   17  1  4      0.09000    -0.74360     2.66910     1.27280
   18  1  4      0.09000    -1.75140     1.20200     1.27460
   19  1  4      0.09000     0.02590    -0.01750     2.50030
   20  1  4      0.09000     1.03370     1.44970     2.49860
   21  1  2      0.09000    -0.17780     1.20470     4.64820
   22  1  2      0.09000    -0.71980     2.65570     3.77110
   23  1  2      0.09000    -1.72760     1.18850     3.77290

  Bonds

           1           2           1           2
           2           1           1           8
           3           1           1           9
           4           1           1          10
           5           3           2           3
           6           4           2          11
           7           4           2          12
           8           3           3           4
           9           4           3          13
          10           4           3          14
          11           3           4           5
          12           4           4          15
          13           4           4          16
          14           3           5           6
          15           4           5          17
          16           4           5          18
          17           2           6           7
          18           4           6          19
          19           4           6          20
          20           1           7          21
          21           1           7          22
          22           1           7          23

  Angles

           1           1           2           1           8
           2           1           2           1           9
           3           1           2           1          10
           4           2           8           1           9
           5           2           8           1          10
           6           2           9           1          10
           7           6           1           2           3
           8           1           1           2          11
           9           1           1           2          12
          10           3           3           2          11
          11           3           3           2          12
          12           4          11           2          12
          13           5           2           3           4
          14           3           2           3          13
          15           3           2           3          14
          16           3           4           3          13
          17           3           4           3          14
          18           4          13           3          14
          19           5           3           4           5
          20           3           3           4          15
          21           3           3           4          16
          22           3           5           4          15
          23           3           5           4          16
          24           4          15           4          16
          25           5           4           5           6
          26           3           4           5          17
          27           3           4           5          18
          28           3           6           5          17
          29           3           6           5          18
          30           4          17           5          18
          31           6           5           6           7
          32           3           5           6          19
          33           3           5           6          20
          34           1           7           6          19
          35           1           7           6          20
          36           4          19           6          20
          37           1           6           7          21
          38           1           6           7          22
          39           1           6           7          23
          40           2          21           7          22
          41           2          21           7          23
          42           2          22           7          23

  Dihedrals

           1           1           8           1           2           3
           2           1           8           1           2          11
           3           1           8           1           2          12
           4           1           9           1           2           3
           5           1           9           1           2          11
           6           1           9           1           2          12
           7           1          10           1           2           3
           8           1          10           1           2          11
           9           1          10           1           2          12
          10           7           1           2           3           4
          11           8           1           2           3           4
          12           9           1           2           3           4
          13          10           1           2           3           4
          14           2           1           2           3          13
          15           2           1           2           3          14
          16           2          11           2           3           4
          17           2          11           2           3          13
          18           2          11           2           3          14
          19           2          12           2           3           4
          20           2          12           2           3          13
          21           2          12           2           3          14
          22           3           2           3           4           5
          23           4           2           3           4           5
          24           5           2           3           4           5
          25           6           2           3           4           5
          26           2           2           3           4          15
          27           2           2           3           4          16
          28           2          13           3           4           5
          29           2          13           3           4          15
          30           2          13           3           4          16
          31           2          14           3           4           5
          32           2          14           3           4          15
          33           2          14           3           4          16
          34           3           3           4           5           6
          35           4           3           4           5           6
          36           5           3           4           5           6
          37           6           3           4           5           6
          38           2           3           4           5          17
          39           2           3           4           5          18
          40           2          15           4           5           6
          41           2          15           4           5          17
          42           2          15           4           5          18
          43           2          16           4           5           6
          44           2          16           4           5          17
          45           2          16           4           5          18
          46           7           4           5           6           7
          47           8           4           5           6           7
          48           9           4           5           6           7
          49          10           4           5           6           7
          50           2           4           5           6          19
          51           2           4           5           6          20
          52           2          17           5           6           7
          53           2          17           5           6          19
          54           2          17           5           6          20
          55           2          18           5           6           7
          56           2          18           5           6          19
          57           2          18           5           6          20
          58           1           5           6           7          21
          59           1           5           6           7          22
          60           1           5           6           7          23
          61           1          19           6           7          21
          62           1          19           6           7          22
          63           1          19           6           7          23
          64           1          20           6           7          21
          65           1          20           6           7          22
          66           1          20           6           7          23
