  Lammps topological information                           
                                                           
              874  atoms
              836  bonds
             1596  angles
             2508  dihedrals
   
                4  atom types
                4  bond types
                6  angle types
               10  dihedral types
   
       0.00000      21.00000  xlo xhi
       0.00000      21.00000  ylo yhi
       0.00000      21.00000  zlo zhi
   
